# Time  ForceX  ForceY  Power
0 0.0600041597799101 2.03896053818653e-06 0
0.005 0.0600041583534443 -0.000365607312605931 -1.36759985371916e-08
0.01 0.0600041562008251 -0.00144970191347937 -2.16368010586563e-07
0.015 0.0600041511311191 -0.00322861690164089 -1.08148576777236e-06
0.02 0.0600041418074 -0.00567877353761936 -3.37319148134389e-06
0.025 0.0600041258238111 -0.00877632899634051 -8.12496082864406e-06
0.03 0.0600040975501777 -0.0124996453377761 -1.66214033878957e-05
0.035 0.0600040495266108 -0.0168263004875868 -3.03772564208861e-05
0.04 0.0600039715971445 -0.0217340382865654 -5.11184580499931e-05
0.045 0.0600038521150073 -0.0272007611762763 -8.07633100512947e-05
0.05 0.0600036757921587 -0.0332046013509419 -0.000121404323689372
0.055 0.0600034244967322 -0.0397238912222697 -0.000175290359619454
0.06 0.0600030772870057 -0.0467371867552693 -0.000244809384224103
0.065 0.0600026090467292 -0.0542232621778975 -0.000332471626520739
0.07 0.0600019905026263 -0.0621611140207552 -0.000440893241470688
0.075 0.0600011878374735 -0.0705299688355439 -0.000572780489098076
0.08 0.0600001625116793 -0.0793092826234449 -0.000730914348657671
0.085 0.0599988709197894 -0.0884787450598843 -0.000918135642604082
0.09 0.0599972635430952 -0.0980182740244508 -0.00113733053807419
0.095 0.0599952852527119 -0.107908026316158 -0.00139141667320791
0.1 0.0599928746555711 -0.118128392910746 -0.0016833295989781
0.105 0.0599899636462504 -0.128660000858432 -0.00201600973907601
0.11 0.0599864771391889 -0.13948371475462 -0.00239238980454257
0.115 0.0599823326486177 -0.150580638125803 -0.00281538266281328
0.12 0.0599774399181143 -0.161932115526136 -0.00328786967364256
0.125 0.0599717005188298 -0.173519735304071 -0.00381268949642743
0.13 0.0599650074276554 -0.185325333171479 -0.00439262737816376
0.135 0.059957244597352 -0.19733099659029 -0.00503040493123524
0.14 0.0599482865149699 -0.209519069970828 -0.00572867041114228
0.145 0.0599379980749133 -0.221872149396384 -0.00648998917549837
0.15 0.0599262327741594 -0.23437314004754 -0.00731683646585918
0.155 0.0599128341735238 -0.247005191323151 -0.00821158723967919
0.16 0.0598976340063371 -0.25975175634861 -0.0091765100482839
0.165 0.0598804519739591 -0.272596594513534 -0.0102137599455996
0.17 0.059861095024226 -0.285523797015726 -0.0113253727895783
0.175 0.0598393565657265 -0.298517842193109 -0.0125132615803683
0.18 0.0598150136445681 -0.311563692645221 -0.0137792158709276
0.185 0.0597878264961786 -0.32464696080762 -0.0151249062405434
0.19 0.0597575341844623 -0.337754094007085 -0.0165518926923879
0.195 0.0597238526842605 -0.350872522748539 -0.0180616345934336
0.2 0.0596864735995928 -0.363990691113262 -0.0196554973201165
0.205 0.0596450645338602 -0.377097942593164 -0.0213347521217042
0.21 0.0595992706059847 -0.390184328625578 -0.0231005705380309
0.215 0.0595487148705338 -0.403240416982744 -0.0249540165531927
0.22 0.0594929979520857 -0.416257218511971 -0.0268960439169327
0.225 0.0594316972430957 -0.429226189172876 -0.02892749781953
0.23 0.0593643663549026 -0.442139270545443 -0.0310491197392361
0.235 0.0592905268396886 -0.454989083388481 -0.033261564607258
0.24 0.0592097487379513 -0.467768295530036 -0.0355653590457399
0.245 0.0591214160000613 -0.480470385325278 -0.0379609591596808
0.25 0.0590250767009546 -0.493089851659368 -0.0404487768939326
0.255 0.0589201746487267 -0.50562114435993 -0.0430291020160857
0.26 0.0588061810870899 -0.518059488652478 -0.0457021719699446
0.265 0.0586825418678312 -0.530400732469424 -0.0484681681082616
0.27 0.0585487056926193 -0.54264126982873 -0.0513272167702423
0.275 0.0584041197938827 -0.55477805338184 -0.0542793980588085
0.28 0.0582482320493352 -0.566808580147473 -0.0573247525617944
0.285 0.0580804921803346 -0.578730859612461 -0.0604632863501386
0.29 0.0579003516689802 -0.590543375842616 -0.0636949750674771
0.295 0.0577072640267509 -0.602245064919977 -0.0670197693005983
0.3 0.0575006853759215 -0.613835283649871 -0.0704375987988226
0.305 0.0572800745624942 -0.62531377872873 -0.073948376385957
0.31 0.0570448934494017 -0.636680659580065 -0.0775520019313047
0.315 0.0567946072582115 -0.647936372527662 -0.0812483661453269
0.32 0.0565286849056479 -0.659081677342161 -0.0850373543373948
0.325 0.0562465994078811 -0.670117625206332 -0.0889188500415385
0.33 0.0559478283212349 -0.681045538050924 -0.092892738514917
0.335 0.0556318541656049 -0.691866989445137 -0.0969589101469881
0.34 0.0552981648431132 -0.702583787778538 -0.101117263904663
0.345 0.0549462540677925 -0.713197961175499 -0.105367710772014
0.35 0.0545756218023166 -0.723711743140196 -0.109710177061659
0.355 0.0541857746848282 -0.734127557970648 -0.114144607452299
0.36 0.053776226361909 -0.744448007305115 -0.118670967948494
0.365 0.0533464978851361 -0.754675859998809 -0.123289249138529
0.37 0.0528961181316989 -0.764814036760614 -0.127999468395765
0.375 0.0524246244204689 -0.774865606428941 -0.132801673758085
0.38 0.0519315628687789 -0.7848337677052 -0.137695945208807
0.385 0.0514164887012831 -0.794721843737026 -0.142682397854994
0.39 0.0508789664195988 -0.80453326468432 -0.147761182791871
0.395 0.050318569951914 -0.814271575469666 -0.152932492284795
0.4 0.0497348829608637 -0.823940417507384 -0.158196560161417
0.405 0.0491274992872912 -0.833543517221822 -0.163553663086976
0.41 0.0484960233925757 -0.843084670976586 -0.169004120830464
0.415 0.0478400704987108 -0.852567732904362 -0.174548296734101
0.42 0.0471592662873752 -0.86199660650929 -0.180186598645065
0.425 0.0464532463665934 -0.87137523690388 -0.185919479745808
0.43 0.0457216558286788 -0.880707598808092 -0.191747438235599
0.435 0.0449641490286474 -0.889997679626559 -0.19767101557596
0.44 0.0441803894473112 -0.899249461268059 -0.203690793970751
0.445 0.0433700494712073 -0.908466904845978 -0.209807393987966
0.45 0.0425328100715585 -0.917653939171 -0.216021472617972
0.455 0.0416683605071748 -0.926814451421166 -0.222333721492085
0.46 0.040776398169835 -0.935952278543347 -0.228744864971437
0.465 0.0398566286086912 -0.945071199331629 -0.235255658111898
0.47 0.0389087657114739 -0.954174927699139 -0.241866884654229
0.475 0.0379325320129718 -0.963267107022297 -0.248579355043804
0.48 0.0369276590779768 -0.972351305123478 -0.255393904398512
0.485 0.035893887891576 -0.981431009656864 -0.262311390381377
0.49 0.0348309692219242 -0.99050962430506 -0.269332691101068
0.495 0.0337386639841748 -0.999590466366875 -0.276458703226817
0.5 0.0326167436510001 -1.00867676601096 -0.283690340440584
0.505 0.0314649907095272 -1.01777166677593 -0.291028532162025
0.51 0.0302831991317829 -1.0268782255042 -0.298474222061945
0.515 0.0290711748349253 -1.03599941137031 -0.30602836624712
0.52 0.0278287361145193 -1.04513810313154 -0.313691930826313
0.525 0.0265557141086235 -1.05429708673679 -0.321465889450835
0.53 0.0252519532920055 -1.06347905370868 -0.329351220970915
0.535 0.023917312037057 -1.07268660119269 -0.337348907515981
0.54 0.0225516632286991 -1.08192223286179 -0.345459932797236
0.545 0.0211548949077252 -1.09118835959279 -0.353685280311908
0.55 0.0197269108816813 -1.10048729931784 -0.362025931247465
0.555 0.0182676312882017 -1.10982127595935 -0.370482862029047
0.56 0.0167769931074888 -1.11919241780307 -0.379057041600888
0.565 0.0152549507099875 -1.12860275600778 -0.387749428664059
0.57 0.0137014764834347 -1.13805422356182 -0.396560968984792
0.575 0.0121165615528376 -1.14754865488889 -0.405492592861695
0.58 0.0105002165609445 -1.15708778610103 -0.414545212775272
0.585 0.00885247248056298 -1.16667325580491 -0.423719721209618
0.59 0.00717338145874979 -1.1763066063494 -0.433016988626262
0.595 0.00546301767977475 -1.18598928522128 -0.442437861498117
0.6 0.00372147816972968 -1.19572264588431 -0.451983160144272
0.605 0.00194888341748767 -1.20550794700914 -0.46165367594558
0.61 0.000145377748883568 -1.21534634959562 -0.471450167693623
0.615 -0.0016888704142386 -1.22523891289861 -0.481373357359532
0.62 -0.0035536680772057 -1.23518659191959 -0.491423926341577
0.625 -0.00544879663772768 -1.24519023950231 -0.50160251347139
0.63 -0.00737401024843076 -1.25525061391288 -0.511909715300228
0.635 -0.00932903399030516 -1.26536838884627 -0.522346087596611
0.64 -0.0113135625406422 -1.27554416016661 -0.532912145764328
0.645 -0.0133272598063381 -1.28577844481246 -0.543608362137528
0.65 -0.0153697593533519 -1.29607167243253 -0.554435160122781
0.655 -0.0174406648548791 -1.30642417569355 -0.565392907506721
0.66 -0.0195395497132227 -1.3168361865656 -0.576481912082316
0.665 -0.0216659555890582 -1.32730784167506 -0.58770242117261
0.67 -0.0238193903638355 -1.33783919329186 -0.599054623834046
0.675 -0.0259993264387623 -1.3484302188174 -0.610538652708376
0.68 -0.0282051999037523 -1.35908082377292 -0.622154583183472
0.685 -0.0304364104077171 -1.3697908389463 -0.633902429941517
0.69 -0.0326923210759453 -1.38056001667497 -0.645782143020024
0.695 -0.0349722579352947 -1.39138803076294 -0.657793605483634
0.7 -0.037275508848269 -1.40227448028897 -0.669936632958056
0.705 -0.0396013223928802 -1.41321889383287 -0.682210973486948
0.71 -0.0419489071163504 -1.42422073065491 -0.69461630603764
0.715 -0.0443174312229737 -1.43527937858612 -0.707152237431174
0.72 -0.0467060224105686 -1.44639415158397 -0.719818299053888
0.725 -0.0491137675346218 -1.45756429005556 -0.732613944899685
0.73 -0.0515397120248959 -1.46878896446146 -0.745538551301346
0.735 -0.0539828592431628 -1.48006727984453 -0.758591417258494
0.74 -0.0564421700184294 -1.49139827845238 -0.771771763930094
0.745 -0.0589165624297756 -1.50278093950581 -0.785078732730947
0.75 -0.0614049117616537 -1.51421417760082 -0.798511382719186
0.755 -0.0639060505561797 -1.52569684188389 -0.81206868836783
0.76 -0.0664187687021858 -1.53722771684184 -0.825749538200503
0.765 -0.0689418136748565 -1.54880552369871 -0.839552733801842
0.77 -0.0714738910659023 -1.56042892098935 -0.853476988442355
0.775 -0.0740136654056984 -1.57209650362145 -0.867520924910512
0.78 -0.0765597611742328 -1.5838068011409 -0.881683072899919
0.785 -0.0791107639039357 -1.59555827638419 -0.895961866590591
0.79 -0.0816652204432957 -1.60734932409663 -0.910355642200597
0.795 -0.0842216415255221 -1.61917827236211 -0.924862637134157
0.8 -0.0867785018161713 -1.6310433809972 -0.93948098745439
0.805 -0.0893342417910783 -1.6429428403692 -0.954208725589239
0.81 -0.0918872698125899 -1.65487477026658 -0.969043778068929
0.815 -0.0944359643344748 -1.66683721874532 -0.983983963253261
0.82 -0.0969786763970506 -1.67882816186716 -0.999026989594938
0.825 -0.0995137323399913 -1.69084550372641 -1.01417045410816
0.83 -0.102039436730508 -1.70288707566547 -1.02941184038877
0.835 -0.104554075516391 -1.7149506339326 -1.04474851570602
0.84 -0.107055919414986 -1.7270338556955 -1.06017772706351
0.845 -0.109543227557146 -1.7391343346166 -1.07569659692414
0.85 -0.11201425140997 -1.75124957756877 -1.09130211957184
0.855 -0.114467238996479 -1.76337700343512 -1.10699115874268
0.86 -0.116900439397349 -1.77551394324866 -1.12276044612484
0.865 -0.119312107477783 -1.78765763955361 -1.13860657942345
0.87 -0.121700508761314 -1.79980524277514 -1.15452601854739
0.875 -0.124063924389221 -1.81195380423839 -1.17051507959345
0.88 -0.126400656160943 -1.82410026817037 -1.18656992804376
0.885 -0.128709031696162 -1.83624146647065 -1.20268657362958
0.89 -0.130987409774069 -1.84837411905158 -1.21886086880088
0.895 -0.133234185873724 -1.86049483917084 -1.23508851059568
0.9 -0.135447797885476 -1.87260013967302 -1.2513650433365
0.905 -0.137626731915934 -1.8846864347086 -1.2676858585275
0.91 -0.139769528085257 -1.89675003367058 -1.28404618960653
0.915 -0.141874786217433 -1.90878712845491 -1.30044110207132
0.92 -0.143941171335169 -1.92079377901997 -1.31686548219563
0.925 -0.145967418901205 -1.93276590340639 -1.33331402854481
0.93 -0.147952339773094 -1.94469927584954 -1.34978124895502
0.935 -0.149894824865028 -1.95658953227556 -1.36626146272807
0.94 -0.151793849518284 -1.96843217871434 -1.38274880512404
0.945 -0.153648477563071 -1.98022259727018 -1.39923723044866
0.95 -0.155457865017467 -1.99195604619443 -1.41572051120625
0.955 -0.157221263346281 -2.00362765454222 -1.43219223349304
0.96 -0.158938022191371 -2.01523241462022 -1.44864579078492
0.965 -0.160607591530512 -2.02676517654391 -1.46507437918542
0.97 -0.162229523257401 -2.03822064776419 -1.48147099627932
0.975 -0.163803472199025 -2.04959339751691 -1.49782844370178
0.98 -0.165329196560424 -2.06087786387251 -1.51413933185432
0.985 -0.166806557786467 -2.07206836034388 -1.53039608459127
0.99 -0.168235519788231 -2.08315908003168 -1.54659094236183
0.995 -0.169616147480104 -2.09414409702892 -1.56271596353202
1 -0.170948604622515 -2.10501736693977 -1.57876302520482
1.005 -0.172233150967736 -2.11577272866899 -1.59472382514189
1.01 -0.173470138754193 -2.12640390935881 -1.61058988624317
1.015 -0.174660008575843 -2.13690453287472 -1.62635256397136
1.02 -0.175803284633766 -2.14726813089828 -1.64200305608913
1.025 -0.176900569377506 -2.15748815522136 -1.65753241368934
1.03 -0.177952537550138 -2.16755799007339 -1.6729315526391
1.035 -0.178959929666337 -2.17747096403462 -1.68819126508298
1.04 -0.179923544991167 -2.18722036219757 -1.70330223150208
1.045 -0.180844234097078 -2.19679943973326 -1.71825503423014
1.05 -0.18172289106104 -2.20620143740671 -1.73304017287789
1.055 -0.18256044534726 -2.21541959957462 -1.74764808211997
1.06 -0.183357853418111 -2.22444719423222 -1.76206915154472
1.065 -0.184116090110584 -2.23327753428844 -1.77629374694398
1.07 -0.184836139837527 -2.24190399958768 -1.79031223266673
1.075 -0.185518987687494 -2.25032005917075 -1.80411499462556
1.08 -0.18616561050941 -2.25851929390734 -1.81769246404533
1.085 -0.186776968090118 -2.26649541983678 -1.83103514221116
1.09 -0.187353994497414 -2.27424231205021 -1.84413362607123
1.095 -0.187897589700732 -2.28175402911655 -1.85697863468185
1.1 -0.18840861155179 -2.2890248375161 -1.86956103604128
1.105 -0.188887868218781 -2.29604923530199 -1.88187187364511
1.11 -0.189336111178577 -2.30282197492162 -1.89390239266337
1.115 -0.18975402883843 -2.30933808443168 -1.90564406506166
1.12 -0.190142240890828 -2.31559288702578 -1.91708861354018
1.125 -0.190501293495533 -2.3215820187198 -1.92822803410273
1.13 -0.190831655376525 -2.3273014431321 -1.93905461630983
1.135 -0.191133714986122 -2.33274746278061 -1.94956096065605
1.14 -0.191407778841376 -2.33791672542574 -1.95973999175432
1.145 -0.191654071148931 -2.34280622478155 -1.96958496665387
1.15 -0.191872734780883 -2.3474132948985 -1.97908947759583
1.155 -0.192063833604238 -2.35173559857374 -1.98824744939609
1.16 -0.192227356106362 -2.35577111061466 -1.99705313205914
1.165 -0.192363219896143 -2.35951809647029 -2.00550108898678
1.17 -0.192471278390294 -2.36297508837708 -2.01358618255342
1.175 -0.192551326908982 -2.36614085869034 -2.02130355674941
1.18 -0.192603109882938 -2.36901438814012 -2.02864861493847
1.185 -0.192626329748981 -2.37159483443746 -2.03561699734213
1.19 -0.192620655728697 -2.37388149533786 -2.04220455322037
1.195 -0.192585733013322 -2.37587376913978 -2.0484073102774
1.2 -0.192521194414361 -2.37757111121694 -2.05422144009144
1.205 -0.192426669278567 -2.37897299216171 -2.05964322439513
1.21 -0.192301793938135 -2.38007885397959 -2.06466901919108
1.215 -0.192146223072494 -2.38088806892963 -2.06929522072588
1.22 -0.191959639238527 -2.38139990488815 -2.07351823678478
1.225 -0.191741760188726 -2.38161349600314 -2.07733446235558
1.23 -0.191492347352398 -2.38152781946395 -2.08074026048369
1.235 -0.191211213034263 -2.38114167779402 -2.0837319479008
1.24 -0.190898222835145 -2.38045369324767 -2.08630579128044
1.245 -0.190553301200099 -2.37946230161302 -2.08845800311019
1.25 -0.190176433811188 -2.3781657535357 -2.09018474431849
1.255 -0.189767668247396 -2.37656212330041 -2.09148213367286
1.26 -0.189327114354185 -2.37464931813927 -2.09234625790023
1.265 -0.188854945201222 -2.37242509394947 -2.09277318771336
1.27 -0.188351394596451 -2.36988707371782 -2.09275899650671
1.275 -0.187816753941877 -2.36703276900477 -2.0922997820304
1.28 -0.18725137073873 -2.36385960616198 -2.09139169251732
1.285 -0.186655642887447 -2.36036495501297 -2.09003095524864
1.29 -0.18603001313147 -2.35654615958517 -2.08821390716822
1.295 -0.185374963188381 -2.35240057067606 -2.08593702732135
1.3 -0.184691007938538 -2.34792557779329 -2.08319696889709
1.305 -0.18397868703242 -2.34311864078949 -2.07999059110891
1.31 -0.183238558241057 -2.33797731773921 -2.07631498779815
1.315 -0.18247119075322 -2.33249928891969 -2.07216751258071
1.32 -0.18167715836513 -2.32668237560735 -2.0675457993417
1.325 -0.18085703377024 -2.32052455217048 -2.0624477766828
1.33 -0.180011383074742 -2.31402395503034 -2.05687167946172
1.335 -0.179140760547621 -2.30717888527548 -2.05081605454403
1.34 -0.178245704345054 -2.29998780892673 -2.04427976430588
1.345 -0.177326732398425 -2.29244935563423 -2.03726198857682
1.35 -0.176384338314976 -2.28456231311904 -2.02976222263399
1.355 -0.17541898860009 -2.27632562274588 -2.0217802760391
1.36 -0.174431119696472 -2.26773837135656 -2.01331626799733
1.365 -0.173421135563775 -2.25879978318585 -2.0043706226451
1.37 -0.172389406522644 -2.24950920653139 -1.99494405955157
1.375 -0.171336267899418 -2.23986610723949 -1.9850375901561
1.38 -0.170262019625051 -2.22987004994657 -1.97465250324999
1.385 -0.169166927101105 -2.21952068657938 -1.96379035683259
1.39 -0.16805122206992 -2.20881774219346 -1.95245296755909
1.395 -0.16691510366692 -2.19776100519553 -1.94064240403655
1.4 -0.165758741078756 -2.18635031983688 -1.92836098209613
1.405 -0.164582272790738 -2.17458557801838 -1.9156112594328
1.41 -0.163385811861809 -2.16246671264025 -1.90239603159454
1.415 -0.16216944606033 -2.14999370893657 -1.88871834376289
1.42 -0.160933239819103 -2.13716659457097 -1.87458148376242
1.425 -0.159677237775263 -2.12398544918778 -1.85998899212644
1.43 -0.158401466620964 -2.1104504070689 -1.844944665995
1.435 -0.157105937951972 -2.0965616600986 -1.82945256318889
1.44 -0.155790651168996 -2.08231945898503 -1.81351700466357
1.445 -0.154455598564762 -2.06772412498326 -1.79714258600089
1.45 -0.153100763484831 -2.05277603870405 -1.7803341688173
1.455 -0.151726129178059 -2.03747564783492 -1.76309688857247
1.46 -0.150331679810984 -2.02182346959206 -1.74543615765189
1.465 -0.148917403627138 -2.00582008860559 -1.72735766439161
1.47 -0.147483294443713 -1.98946616132203 -1.70886737763031
1.475 -0.146029355306205 -1.9727624111204 -1.6899715431482
1.48 -0.144555600665969 -1.95570963371508 -1.67067668885892
1.485 -0.143062057974034 -1.93830869710944 -1.65098962518026
1.49 -0.141548769983556 -1.92056054266832 -1.63091744624757
1.495 -0.140015795485378 -1.90246619239931 -1.61046753625648
1.5 -0.138463211695151 -1.88402674276276 -1.5896475642061
1.505 -0.136891115733215 -1.86524337315151 -1.56846549095992
1.51 -0.13529962547176 -1.84611734458961 -1.54692956784406
1.515 -0.133688880663548 -1.82664999860741 -1.52504833528579
1.52 -0.132059045431254 -1.80684275936013 -1.50283062404124
1.525 -0.130410305571469 -1.7866971273365 -1.48028554928396
1.53 -0.128742872435788 -1.7662146761059 -1.45742250719196
1.535 -0.127056982917581 -1.74539705023834 -1.43425117243838
1.54 -0.125352898926471 -1.72424596053992 -1.4107814934057
1.545 -0.123630907536767 -1.70276318198779 -1.38702368958032
1.55 -0.12189132039207 -1.68095055080726 -1.36298824818114
1.555 -0.120134472676708 -1.65880996322809 -1.33868592209544
1.56 -0.118360724249405 -1.6363433736718 -1.31412772727535
1.565 -0.116570454496621 -1.61355280037256 -1.28932494600694
1.57 -0.114764064373108 -1.59044031674329 -1.26428911859884
1.575 -0.112941975153975 -1.56700805500108 -1.23903204486433
1.58 -0.111104626749713 -1.5432582043503 -1.21356578112215
1.585 -0.109252477122374 -1.5191930103728 -1.1879026380756
1.59 -0.107386001263595 -1.49481477329209 -1.16205517772063
1.595 -0.105505690219925 -1.47012584767693 -1.13603621130205
1.6 -0.103612049818105 -1.44512864288452 -1.10985879773533
1.605 -0.101705599117694 -1.41982562405722 -1.08353624232657
1.61 -0.0997868686472352 -1.39421931352169 -1.05708209565454
1.615 -0.0978563984584071 -1.36831229259027 -1.0305101525973
1.62 -0.0959147360986214 -1.34210720307229 -1.00383445096675
1.625 -0.0939624345986567 -1.31560674821849 -0.977069269550951
1.63 -0.0920000505989438 -1.28881369315644 -0.950229125623903
1.635 -0.0900281426400453 -1.26173086433925 -0.923328771589146
1.64 -0.0880472696478669 -1.23436114877295 -0.896383191349743
1.645 -0.0860579897214611 -1.2067074926117 -0.869407596117448
1.65 -0.0840608589783993 -1.17877290049615 -0.842417420670226
1.655 -0.0820564304532023 -1.15056043482659 -0.815428319456498
1.66 -0.0800452530387064 -1.12207321625749 -0.788456163453405
1.665 -0.0780278701446622 -1.09331442469953 -0.761517037229447
1.67 -0.0760048182898807 -1.06428730057777 -0.734627236013899
1.675 -0.0739766256320942 -1.03499514568424 -0.707803262305042
1.68 -0.0719438105557519 -1.00544132309391 -0.681061821672078
1.685 -0.0699068803908283 -0.975629255642598 -0.654419817454391
1.69 -0.0678663303248996 -0.94556242279114 -0.627894344308123
1.695 -0.0658226425635424 -0.915244356166996 -0.601502680871187
1.7 -0.0637762857619575 -0.884678633986805 -0.57526228174994
1.705 -0.0617277147488375 -0.853868874816843 -0.549190769186461
1.71 -0.0596773705232785 -0.82281873118124 -0.523305924776754
1.715 -0.0576256804794524 -0.791531883554143 -0.497625681599168
1.72 -0.0555730587681682 -0.760012034766868 -0.47216811676742
1.725 -0.0535199067337195 -0.728262904912437 -0.446951444451223
1.73 -0.0514666134033712 -0.696288226583466 -0.4219940092517
1.735 -0.0494135560145423 -0.664091739937668 -0.397314279623473
1.74 -0.0473611006470605 -0.631677187083469 -0.372930841064727
1.745 -0.0453096030244664 -0.599048305305118 -0.348862388846069
1.75 -0.0432594095131305 -0.566208819094962 -0.325127720339697
1.755 -0.0412108582830828 -0.533162430771576 -0.301745726910106
1.76 -0.0391642806026458 -0.499912810095017 -0.278735385699068
1.765 -0.0371200023112568 -0.466463583002927 -0.256115751457267
1.77 -0.0350783455444852 -0.432818319637523 -0.2339059485947
1.775 -0.0330396306454526 -0.398980521813078 -0.212125163603184
1.78 -0.0310041782618073 -0.364953610329383 -0.190792638129667
1.785 -0.0289723119975391 -0.330740912977667 -0.169927663179189
1.79 -0.0269443607261921 -0.296345653540715 -0.149549574590304
1.795 -0.0249206599669385 -0.26177093817515 -0.129677747962605
1.8 -0.0229015561147738 -0.227019743284595 -0.11033159523632
1.805 -0.020887408772678 -0.192094905082151 -0.091530562957808
1.81 -0.0188785931431967 -0.156999107293728 -0.073294130495217
1.815 -0.0168755037305397 -0.12173486759078 -0.0556418086312611
1.82 -0.0148785579901916 -0.0863045226008694 -0.0385931385895226
1.825 -0.0128882003871984 -0.0507102116583393 -0.0221676917049738
1.83 -0.010904906871666 -0.0149538588511398 -0.00638506968309027
1.835 -0.00892918744501014 0.020962847633923 0.00873509479723733
1.84 -0.00696160449077832 0.0570384695754242 0.0231731331113467
1.845 -0.00500271977721223 0.0932719011940542 0.036909361452472
1.85 -0.00305325234197973 0.129662205516036 0.0499240010675992
1.855 -0.00111388153722825 0.166208907390523 0.062197279353946
1.86 0.000814609623564388 0.202911831604219 0.0737093461248919
1.865 0.00273136884823644 0.239771187705623 0.0844402866099463
1.87 0.00463546468154119 0.276787592148342 0.094370106770906
1.875 0.00652587979993879 0.313962093207733 0.103478717243773
1.88 0.00840150364266856 0.351296202123287 0.111745916710624
1.885 0.0102611245062039 0.388791922500372 0.119151371673792
1.89 0.0121034211405662 0.42645178109008 0.125674593596647
1.895 0.0139269531624717 0.464278863523425 0.131294914213403
1.9 0.0157301507119321 0.502276852027794 0.135991457686548
1.905 0.0175113031606058 0.540450065529008 0.139743109432795
1.91 0.0192685470684832 0.578803503054919 0.142528481515915
1.915 0.0209998533368436 0.617342889520547 0.144325873973931
1.92 0.0227030135496995 0.656074723567775 0.145113231657647
1.925 0.0243756258662364 0.695006326976456 0.144868096147655
1.93 0.0260150807524027 0.734145894364032 0.143567552200657
1.935 0.0276185466047703 0.773502542295141 0.141188168375758
1.94 0.0291829554784473 0.813086355793615 0.137705931389959
1.945 0.0307049892791946 0.852908431446078 0.133096174153486
1.95 0.0321810667098126 0.892980915047309 0.127333497355075
1.955 0.0336073315455496 0.933317032415363 0.120391684790135
1.96 0.0349796423515309 0.973931111458088 0.112243612733375
1.965 0.036293564107442 1.01483859392506 0.102861153933049
1.97 0.0375443621771219 1.05605603533891 0.0922150770198626
1.975 0.0387269990600461 1.09760109188554 0.0802749423569886
1.98 0.0398361342781175 1.13949249323274 0.0670089955571108
1.985 0.0408661278149558 1.18175000085545 0.0523840600926777
1.99 0.0418110473141573 1.22439435210651 0.036365430553401
1.995 0.042664678835636 1.26744719071919 0.0189167681447356
2 0.0434205408551875 1.31093098564436 8.14310714933885e-14
