# Time  ForceX  ForceY  Power
0 0.0603607538048643 -0.00037967705216535 0
0.005 0.0603607750894726 0.000638153286433463 -6.80149757947173e-07
0.01 0.060360964145439 0.00360444792196435 -1.00831743156326e-05
0.015 0.060361549178511 0.00841551153625497 -4.86405929805448e-05
0.02 0.0603625806214398 0.014970244878326 -0.000147072172977759
0.025 0.0603651467891193 0.0231873716983182 -0.000343854904535588
0.03 0.0603711681112928 0.0329818050457138 -0.000682813403346878
0.035 0.0603823772122078 0.0442676260220756 -0.00121102612468077
0.04 0.0604020171417596 0.0569765468926424 -0.00197711845570182
0.045 0.0604341701335185 0.0710385991106817 -0.00302954610445269
0.05 0.0604836803274931 0.0863863767633395 -0.00441524559265167
0.055 0.0605565088114128 0.102957103194321 -0.00617849917710616
0.06 0.0606596779968414 0.120690744643071 -0.00835995882163878
0.065 0.0608011842720702 0.13952955174817 -0.0109958671721611
0.07 0.0609899870101345 0.159418313607436 -0.0141174658288483
0.075 0.0612360302058426 0.180304683035762 -0.0177505768641292
0.08 0.0615502333370435 0.202139355008356 -0.0219153337816772
0.085 0.0619444358029944 0.224876131409887 -0.0266260572271707
0.09 0.0624313133290548 0.248471922811695 -0.0318912755320569
0.095 0.0630243180885279 0.272886915137611 -0.0377138858719683
0.1 0.0637376308276669 0.298084812080373 -0.0440914304221417
0.105 0.0645861242326939 0.324032972462017 -0.0510164599454008
0.11 0.0655853418886194 0.350702408654785 -0.0584769781006985
0.115 0.0667514486944549 0.378067682610662 -0.0664569548723871
0.12 0.0681011442855466 0.406106858801502 -0.0749369035990575
0.125 0.0696516009906587 0.434801501710502 -0.0838945227229812
0.13 0.0714204687780866 0.464136574862215 -0.0933053799516916
0.135 0.0734258951826843 0.494100238567114 -0.103143606145055
0.14 0.0756865104916775 0.524683681111055 -0.11338259608352
0.145 0.0782214053197434 0.555881080077522 -0.123995732122011
0.15 0.0810501396188859 0.587689576922375 -0.134957120301032
0.155 0.0841927813659364 0.620109116849629 -0.146242310327561
0.16 0.0876699433770058 0.653142171821654 -0.157828983493315
0.165 0.0915028231298725 0.686793412666239 -0.169697582500613
0.17 0.0957132429271905 0.721069351554588 -0.181831867197764
0.175 0.100323704947254 0.755977645534612 -0.194219281628319
0.18 0.105357462544887 0.791525859694508 -0.206850981531539
0.185 0.110838580058812 0.827719866006892 -0.219721474980539
0.19 0.116791972517727 0.86456211604857 -0.232827930438891
0.195 0.123243389926239 0.902050361103911 -0.246169461652088
0.2 0.130219321537041 0.940177206175848 -0.259746683921076
0.205 0.137746866484866 0.978930739118156 -0.273561771025793
0.21 0.145853615033227 1.01829578621773 -0.287618869443621
0.215 0.154567573344932 1.05825508402213 -0.301924536422896
0.22 0.163917122686865 1.09878985242884 -0.316487879706693
0.225 0.173930991976007 1.13987987333857 -0.331320329903841
0.23 0.184638201432063 1.18150346577925 -0.346435189692835
0.235 0.196067968159211 1.22363775558294 -0.361847193942907
0.24 0.208249647750039 1.26625909444799 -0.377572044091191
0.245 0.221212666590051 1.30934352368573 -0.393625888404897
0.25 0.234986442979702 1.35286715211068 -0.410024711847334
0.255 0.249600315351398 1.39680648581655 -0.426783722183661
0.26 0.26508347199344 1.44113863260605 -0.44391674325886
0.265 0.281464904343878 1.48584146618649 -0.461435698312894
0.27 0.298773409380495 1.5308937480089 -0.479350171594724
0.275 0.31703760267053 1.57627515516381 -0.497666997111956
0.28 0.336285931646061 1.62196623027475 -0.516389896271904
0.285 0.356546689808564 1.66794818829051 -0.535519219083529
0.29 0.377847952175218 1.7142024408936 -0.555051677157949
0.295 0.400217523732168 1.76071003241985 -0.574980152471205
0.3 0.423682876551247 1.80745108735874 -0.595293490575801
0.305 0.44827112472532 1.85440453192218 -0.615976404159466
0.31 0.474009004582067 1.90154800398309 -0.637009448182759
0.315 0.50092284803223 1.94885785268398 -0.658369081531734
0.32 0.529038490067968 1.99630897903623 -0.680027712011367
0.325 0.558381124624381 2.043874506128 -0.701953740482009
0.33 0.588975084661056 2.09152530565279 -0.724111562194986
0.335 0.620843626894658 2.13922959697833 -0.746461643700811
0.34 0.654008698644895 2.18695266234534 -0.768960643837507
0.345 0.688490748959997 2.23465682977944 -0.791561711599362
0.35 0.724308578654847 2.28230162919981 -0.814214888181662
0.355 0.761479198869286 2.32984396983905 -0.83686748557113
0.36 0.800017665849576 2.3772382209419 -0.859464367920627
0.365 0.839936874315236 2.42443617193738 -0.881948148045369
0.37 0.881247367668824 2.47138700096212 -0.904259519072131
0.375 0.923957065293626 2.5180371257041 -0.926337546993146
0.38 0.968070916888094 2.56433002019588 -0.94811993228068
0.385 1.01359063763418 2.6102063444892 -0.969543496272622
0.39 1.06051449960315 2.65560426520662 -0.990544717052116
0.395 1.10883723748929 2.70045997148437 -1.01106030579898
0.4 1.15855001562162 2.74470820113165 -1.03102776522748
0.405 1.20964036067351 2.78828257994836 -1.05038577311551
0.41 1.26209209535645 2.83111586182531 -1.06907457698286
0.415 1.31588522185959 2.87314002101445 -1.08703635657733
0.42 1.37099563595114 2.91428605403491 -1.1042152062463
0.425 1.42739478280516 2.9544838063028 -1.12055701211704
0.43 1.48504950206891 2.99366219636345 -1.13600966977838
0.435 1.54392190536337 3.0317494899327 -1.15052320037779
0.44 1.60396924413477 3.06867355746708 -1.16404969275089
0.445 1.66514403143612 3.10436250148998 -1.17654358890588
0.45 1.72739430975974 3.13874542105277 -1.18796214846427
0.455 1.79066384893152 3.17175297479566 -1.1982657085728
0.46 1.85489228277878 3.20331776694273 -1.20741779076004
0.465 1.92001517655495 3.23337458141544 -1.21538509148737
0.47 1.98596401557083 3.26186045577466 -1.22213741719002
0.475 2.05266631726872 3.28871490914038 -1.2276477632112
0.48 2.12004583475254 3.31388026597005 -1.23189246072205
0.485 2.18802266695931 3.33730184639836 -1.2348509794815
0.49 2.2565134280997 3.35892825016627 -1.23650570744305
0.495 2.32543170944695 3.37871192610009 -1.23684220973064
0.5 2.39468848508878 3.39660955801985 -1.23584936800428
0.505 2.46419220192119 3.41258204297655 -1.23351894037269
0.51 2.53384886440179 3.42659447386588 -1.22984519739284
0.515 2.6035623255454 3.4386163244923 -1.22482495623699
0.52 2.6732345554718 3.448621585075 -1.21845752252057
0.525 2.74276581756089 3.45658881489692 -1.21074442077308
0.53 2.8120549155149 3.4625012597698 -1.20168922003404
0.535 2.88099953999898 3.46634702891185 -1.19129750942609
0.54 2.94949673025537 3.46811932734194 -1.17957702993835
0.545 3.01744344043117 3.46781673116986 -1.16653793510184
0.55 3.08473705546347 3.4654433438595 -1.15219288692049
0.555 3.15127571638186 3.46100877212455 -1.136556827008
0.56 3.21695868509982 3.45452811085936 -1.11964680276182
0.565 3.28168683377803 3.44602199952446 -1.10148202042564
0.57 3.34536293285922 3.43551647779024 -1.08208359437335
0.575 3.40789165195194 3.4230426164512 -1.06147392004491
0.58 3.46917975619688 3.40863631123932 -1.03967646769695
0.585 3.52913654331572 3.39233823817319 -1.0167159746869
0.59 3.5876741195953 3.37419366839944 -0.992618381395646
0.595 3.64470765424763 3.35425226331921 -0.967410762311026
0.6 3.70015589781335 3.33256803324006 -0.941121640676315
0.605 3.75394176341365 3.30919930740941 -0.913781353217331
0.61 3.80599274757014 3.28420857093311 -0.88542216858359
0.615 3.85624108314322 3.2576621370852 -0.856078040031875
0.62 3.90462364363805 3.22962967401314 -0.825784096653033
0.625 3.95108177837855 3.20018371840226 -0.794576171090513
0.63 3.99556125393281 3.1693992802018 -0.762490588232756
0.635 4.03801226905167 3.13735350849782 -0.729564117341564
0.64 4.07838946705924 3.10412537204403 -0.695833946986108
0.645 4.11665208164318 3.06979541918409 -0.661337872474099
0.65 4.15276438719649 3.03444565717536 -0.626114835739964
0.655 4.18669612961658 2.99815940031009 -0.590205430517715
0.66 4.21842259448296 2.9610209336752 -0.55365187631853
0.665 4.24792439771014 2.92311505494285 -0.516497627300962
0.67 4.27518721096937 2.88452663779702 -0.478787059823482
0.675 4.30020152937403 2.84534023310671 -0.440565230781121
0.68 4.3229623714224 2.80563966366675 -0.401877621347025
0.685 4.34346895974378 2.7655076618862 -0.362769969698895
0.69 4.36172440844733 2.725025535143 -0.323288122646737
0.695 4.37773521946694 2.68427277896389 -0.283477742669267
0.7 4.3915106796505 2.64332670643166 -0.243384000222128
0.705 4.40306256570359 2.60226222214765 -0.203051694407959
0.71 4.41240533227446 2.56115178072392 -0.162525908229267
0.715 4.41955679048624 2.52006551707116 -0.121853096195658
0.72 4.42453908102427 2.47907142665917 -0.0810822679510612
0.725 4.42737940205144 2.43823544005379 -0.0402656606225137
0.73 4.4281100258775 2.39762123620055 0.000541472821463995
0.735 4.42676772062743 2.3572898782464 0.0412817024022722
0.74 4.42339296477923 2.31729946040867 0.0818963562569911
0.745 4.41802914561711 2.27770476263932 0.122326295477212
0.75 4.41072168527857 2.23855694270984 0.162512666490836
0.755 4.40151716817338 2.19990327014138 0.202397522270711
0.76 4.39046282292027 2.16178699950101 0.241923923711047
0.765 4.37760660663539 2.12424742881723 0.281035489687627
0.77 4.36299738780114 2.08731999345015 0.31967587469353
0.775 4.34668465717111 2.05103627334312 0.357788853848552
0.78 4.32871767416824 2.01542388596163 0.395318841989464
0.785 4.30914485458229 1.9805064940989 0.432211103430727
0.79 4.28801406925812 1.94630398523952 0.468411133627536
0.795 4.26537359539102 1.91283272914756 0.503863673813067
0.8 4.24127278231397 1.88010578499436 0.538512257076446
0.805 4.21576180104261 1.84813294085294 0.572299655096432
0.81 4.18889100882588 1.8169208088928 0.605168767432422
0.815 4.1607106304651 1.78647301684944 0.637063179043412
0.82 4.13127089914532 1.75679041796059 0.667927071258166
0.825 4.10062315871911 1.72787151208719 0.697705129082815
0.83 4.06881980836315 1.69971244313034 0.726342328690942
0.835 4.035914047452 1.67230710756664 0.753784360904991
0.84 4.00195965387716 1.64564735550013 0.779978333136105
0.845 3.9670100716123 1.61972302157943 0.8048733164445
0.85 3.93111790978689 1.59452217840491 0.828421036838838
0.855 3.89433416763246 1.57003128009102 0.850576454805409
0.86 3.85670715297009 1.54623537628128 0.871298411238995
0.865 3.81828204936602 1.52311846320636 0.890550210461408
0.87 3.77910138744991 1.50066396702781 0.908299674877124
0.875 3.73920573830483 1.47885503401938 0.924518383085816
0.88 3.69863534098906 1.45767480442802 0.939180715088106
0.885 3.65743253538602 1.43710690847601 0.95226358580088
0.89 3.61564233129984 1.41713524994983 0.963746207916905
0.895 3.57331172763044 1.39774390834288 0.973610927678341
0.9 3.5304877026583 1.37891695517035 0.981844490102682
0.905 3.48721378100445 1.36063792692625 0.988438785993697
0.91 3.44352773081664 1.34288991168759 0.993391830800382
0.915 3.39945853287368 1.32565534336037 0.996707745640993
0.92 3.35502445207939 1.30891591101998 0.998396157936324
0.925 3.31023347698602 1.29265304506656 0.998471604226737
0.93 3.26508409789169 1.27684798527421 0.996951918461513
0.935 3.21956977353113 1.26148223338336 0.99385658208586
0.94 3.17368646077812 1.24653821003585 0.989205216975307
0.945 3.12744000536814 1.2319992893373 0.983016171669372
0.95 3.08085427135784 1.21785012874 0.97530690839216
0.955 3.03397336914829 1.20407622061861 0.966095349053171
0.96 2.98685763986895 1.19066324307464 0.955402246528864
0.965 2.93957524801853 1.17759650789214 0.943253727937963
0.97 2.89219056598674 1.16486047218923 0.92968271226614
0.975 2.84475096330871 1.15243799197907 0.91472829643284
0.98 2.79728309148525 1.14031107899515 0.898434735951154
0.985 2.7497892452794 1.12846034465336 0.880848116874945
0.99 2.70225147032925 1.11686506260188 0.862013464644444
0.995 2.65464177427122 1.105503583212 0.841972934590625
1 2.60693578058202 1.0943541114174 0.820765583563048
1.005 2.55911655129461 1.08339349409541 0.798426955600884
1.01 2.51118499478584 1.07259885266897 0.774991688780013
1.015 2.46315903438872 1.06194758419696 0.750494841473276
1.02 2.41506617621479 1.05141691075022 0.724972336802058
1.025 2.36693932147457 1.04098492331264 0.698461517450689
1.03 2.31881108813526 1.03063075959203 0.671000222113485
1.035 2.2707042639945 1.02033342117829 0.64262467712846
1.04 2.22262519974955 1.01007050084079 0.613367614844509
1.045 2.17457031588559 0.999819404327428 0.583258365454956
1.05 2.12652787142284 0.989556618911063 0.552322334730348
1.055 2.0784763949592 0.979256108622044 0.520580526967945
1.06 2.03039101374089 0.968890310254355 0.4880505285281
1.065 1.98224982338138 0.958431593079523 0.454747364749069
1.07 1.93402709214649 0.947850595099434 0.420682421332675
1.075 1.88569175124798 0.937116581481351 0.385862983551371
1.08 1.83720807691141 0.92619853165831 0.350291750706496
1.085 1.78853503539482 0.915065241066842 0.313965840205647
1.09 1.73962519581933 0.903684726313316 0.276875717347026
1.095 1.69042536940556 0.892023998235172 0.239004669105062
1.1 1.64088069568872 0.880049401181918 0.200328864070305
1.105 1.59093748901779 0.867726591860679 0.160817653383975
1.11 1.54054140419528 0.855019355657331 0.120433723061038
1.115 1.48963715915622 0.841889426578716 0.0791334017837764
1.12 1.43816944595038 0.828297032225932 0.0368667896494763
1.125 1.38608314434118 0.814200943817676 -0.00642271233189939
1.13 1.3333211490803 0.799557874825799 -0.0507992838586997
1.135 1.27982194797173 0.784321411761479 -0.0963351662430181
1.14 1.2255223577702 0.768442513220711 -0.143110057643721
1.145 1.17036237380299 0.751870511468387 -0.191209677098492
1.15 1.11428824473773 0.734553205804305 -0.240724047148517
1.155 1.05725412662305 0.71643691181534 -0.291745999562641
1.16 0.999224779878423 0.697466871677704 -0.344369686278958
1.165 0.940175116946119 0.677586860484032 -0.398689725461262
1.17 0.880089018875514 0.656738938589243 -0.454800673095396
1.175 0.81895875100561 0.634864104210792 -0.51279640725956
1.18 0.756783020698003 0.611902371845467 -0.572769318278257
1.185 0.693565968198738 0.587793081184411 -0.634809161773234
1.19 0.629316213415357 0.56247507849298 -0.69900179695554
1.195 0.564047728351847 0.535887860399958 -0.765428025338947
1.2 0.497779300113421 0.50797191887464 -0.83416247471276
1.205 0.430533735772115 0.478668589497304 -0.905272330537969
1.21 0.362342292584957 0.447922146251822 -0.978815756981792
1.215 0.293243709992431 0.415679512414822 -1.05484166347193
1.22 0.223282579115081 0.381889687200236 -1.13339031263118
1.225 0.152507522278689 0.346502593936001 -1.21449376530932
1.23 0.0809736540795112 0.309469813411286 -1.2981744002808
1.235 0.00874230223384576 0.270744646058091 -1.3844420436464
1.24 -0.0641154049720951 0.230284516741393 -1.47328933043513
1.245 -0.137519117619763 0.188051439912644 -1.56468819673688
1.25 -0.211379768092714 0.144013001326131 -1.65858919023217
1.255 -0.285602477541191 0.0981420586898051 -1.75492436733272
1.26 -0.360084306910967 0.0504186111148016 -1.85361002397654
1.265 -0.434716435431793 0.000828378247447858 -1.95454817172491
1.27 -0.509382114035408 -0.0506367111947609 -2.05762462764189
1.275 -0.583956900332687 -0.103978381385156 -2.16270663489928
1.28 -0.658309497921054 -0.15919089842092 -2.26964215529164
1.285 -0.732300496699507 -0.21625813086518 -2.37826177197407
1.29 -0.805794058772044 -0.275158937018312 -2.48838581117314
1.295 -0.878658236340185 -0.335866896347111 -2.59982910226498
1.3 -0.950765033603402 -0.398351516016807 -2.71240326836605
1.305 -1.02198760979628 -0.462577890934886 -2.82591653401151
1.31 -1.09220382446377 -0.528509548931799 -2.94017507306127
1.315 -1.16129332602803 -0.596106060661638 -3.0549837412103
1.32 -1.2291388450676 -0.665322509036032 -3.17014893678029
1.325 -1.2956265655946 -0.736108867090821 -3.2854801374114
1.33 -1.36064696544285 -0.808410736548485 -3.40078875175463
1.335 -1.42409285718043 -0.882168156021771 -3.51588355246494
1.34 -1.48585622394091 -0.957313240017218 -3.63056430344078
1.345 -1.5458270821429 -1.0337688426977 -3.74461653903628
1.35 -1.60389250445431 -1.11144700996322 -3.8578087973562
1.355 -1.65994140754355 -1.19025240534222 -3.96989481197612
1.36 -1.71386202253194 -1.27007973480732 -4.08061598660658
1.365 -1.76554495110041 -1.35081561173968 -4.18970756545575
1.37 -1.81488756106173 -1.43234248737099 -4.29690557446336
1.375 -1.86179587283477 -1.51454057031895 -4.40195273812091
1.38 -1.90618400690407 -1.59728767950608 -4.5046022535557
1.385 -1.94797674519209 -1.68046225580313 -4.60462079708905
1.39 -1.98710724768398 -1.76394169832539 -4.70178688993713
1.395 -2.02351565180182 -1.84759996339496 -4.79588767369227
1.4 -2.05715021439638 -1.93130680677376 -4.88671605756641
1.405 -2.0879688633369 -2.01492829282425 -4.97407032759086
1.41 -2.11593598975692 -2.09832418141209 -5.05775655492117
1.415 -2.14102517743549 -2.18135360324185 -5.13759810189326
1.42 -2.16322238320326 -2.26388238073236 -5.21344352253996
1.425 -2.18251751608224 -2.34577600235454 -5.28515741345762
1.43 -2.19890330245845 -2.4268959861222 -5.35260352053674
1.435 -2.2123726505943 -2.50709226420462 -5.41562331834863
1.44 -2.22292018400196 -2.5862006823491 -5.47402860040512
1.445 -2.23054195162868 -2.66404173909763 -5.52761282587864
1.45 -2.23524715403436 -2.7404378251772 -5.57618611686049
1.455 -2.23706394576975 -2.81522683810734 -5.6196063864729
1.46 -2.23603618211476 -2.88826391758903 -5.65778859632855
1.465 -2.23222489599022 -2.95942584430596 -5.6906994136626
1.47 -2.22570063512676 -3.02860154764057 -5.71833449455922
1.475 -2.21653889808879 -3.09568506583223 -5.74069901355952
1.48 -2.20481720473839 -3.16057052892473 -5.75779639049034
1.485 -2.19061395610932 -3.22314981532942 -5.7696243684753
1.49 -2.17400979001412 -3.28331422182238 -5.77617557549321
1.495 -2.15508674391341 -3.34095279314578 -5.77743612359845
1.5 -2.13392736126462 -3.39594994271859 -5.77338354771062
1.505 -2.11061775488832 -3.4481891783708 -5.76398913880167
1.51 -2.08524599523293 -3.49755054547539 -5.74921721846617
1.515 -2.05790318201493 -3.54391287789171 -5.72903109299694
1.52 -2.02868364367575 -3.58715660067099 -5.70340224502136
1.525 -1.99768909112609 -3.6271742070576 -5.67232959807111
1.53 -1.96502982404134 -3.66387762879568 -5.63585726107445
1.535 -1.93082567913006 -3.69720511838849 -5.59408554380927
1.54 -1.89520458920545 -3.72712099619815 -5.547164724674
1.545 -1.85829646920069 -3.75360222215345 -5.49526472220462
1.55 -1.82022786714129 -3.77662300149056 -5.43853664571152
1.555 -1.78111729705906 -3.79614015101476 -5.3770864985541
1.56 -1.74107638166379 -3.81209481154444 -5.31098233138272
1.565 -1.70021520140633 -3.82442857833518 -5.24029327894658
1.57 -1.65864714115869 -3.83310326488166 -5.16513257991063
1.575 -1.61648994023165 -3.83811074411517 -5.08567500593915
1.58 -1.57386542421654 -3.83947307572583 -5.00214222513566
1.585 -1.53089252880314 -3.83722103961584 -4.91475895241413
1.59 -1.48768471233823 -3.83138081204259 -4.82372269537584
1.595 -1.44434725515699 -3.82196401035701 -4.72919715251463
1.6 -1.40098222131558 -3.80898229449099 -4.63134019959265
1.605 -1.35769064103046 -3.79245828878089 -4.53033191139654
1.61 -1.31457290136826 -3.77243228683332 -4.42638578829849
1.615 -1.27172809464595 -3.74896195242711 -4.31974090821584
1.62 -1.22925042091314 -3.7221095768039 -4.21063675582931
1.625 -1.18722698141594 -3.69193099007511 -4.09928867272655
1.63 -1.14573646954361 -3.65846598264596 -3.98587228051948
1.635 -1.10484774946389 -3.62173003082431 -3.87052101637572
1.64 -1.06462399553005 -3.58172834530477 -3.75335438165937
1.645 -1.02512613619626 -3.53847760921741 -3.63452005414177
1.65 -0.986415007394258 -3.49202893545872 -3.51423260202707
1.655 -0.948553817344508 -3.44248798023562 -3.39279145484819
1.66 -0.911604108553899 -3.39000048708898 -3.27054843425726
1.665 -0.875621390552513 -3.33472125566051 -3.14784832572335
1.67 -0.840652369474913 -3.27678166433642 -3.02497411556937
1.675 -0.806733553546187 -3.21626669995403 -2.90212199709231
1.68 -0.773893588537253 -3.15321943241151 -2.77942156523112
1.685 -0.742155950389063 -3.08766375662143 -2.65697990922263
1.69 -0.711541164152158 -3.01963197520828 -2.53492584642919
1.695 -0.682068141539125 -2.94918544995416 -2.41343568477366
1.7 -0.653752544417237 -2.87641392054047 -2.29272677241228
1.705 -0.626605907301445 -2.80142659553435 -2.17303640099299
1.71 -0.600634364049522 -2.72433583797472 -2.0545947315759
1.715 -0.575838468811879 -2.64524550199308 -1.93760856433053
1.72 -0.552213439164107 -2.56424755979234 -1.82225954271659
1.725 -0.529749258073462 -2.4814266695717 -1.70871266232598
1.73 -0.508432057246962 -2.3968749839693 -1.59713291992321
1.735 -0.48824408795785 -2.31069784639265 -1.48769270549271
1.74 -0.469163563468401 -2.22301378058388 -1.38057035127832
1.745 -0.451165841924105 -2.13395639045512 -1.27594736304902
1.75 -0.434222700315236 -2.04366176461807 -1.17399549248963
1.755 -0.418303101283848 -1.95226334003368 -1.07487139580935
1.76 -0.403373739982881 -1.85988967822972 -0.978714088168851
1.765 -0.389398802301061 -1.7666596257061 -0.885641716169317
1.77 -0.376340742093305 -1.6726847572545 -0.795754083529206
1.775 -0.364160136634751 -1.57806653443612 -0.709132003040373
1.78 -0.352816141902138 -1.48290047618635 -0.625841523601204
1.785 -0.342266522684511 -1.38728014545134 -0.545939151778834
1.79 -0.332466478650084 -1.29129548237585 -0.469473600389354
1.795 -0.323368698731901 -1.19504275237341 -0.396494075326725
1.8 -0.314922503303262 -1.09862771987668 -0.327052182817936
1.805 -0.307072870861271 -1.00216374386011 -0.261198725779043
1.81 -0.299760635711983 -0.905772454243426 -0.198980809349984
1.815 -0.292922977367446 -0.809579830962141 -0.140435825360048
1.82 -0.286494647315658 -0.713712393322169 -0.0855863544327581
1.825 -0.280409675639495 -0.61829311191874 -0.0344369701368964
1.83 -0.2746025788424 -0.52343426589078 0.0130285814083646
1.835 -0.269010234010764 -0.429242001942438 0.0568423671778795
1.84 -0.263572703298843 -0.335818456220044 0.0970483215772071
1.845 -0.258232833095068 -0.243258792991847 0.133701128261036
1.85 -0.252936366225671 -0.151658373546723 0.166860584975489
1.855 -0.247631329266784 -0.0611129782730857 0.196590666122964
1.86 -0.242267699404064 0.0282826314871039 0.222960117812076
1.865 -0.236797602168215 0.116434887931393 0.246042752090209
1.87 -0.231175497251411 0.203254488486021 0.26591900508254
1.875 -0.225358945679038 0.288653064489725 0.2826744449399
1.88 -0.219309093593971 0.372542259962388 0.296399267268542
1.885 -0.212990752880817 0.454836902344469 0.307189272015669
1.89 -0.206372838990413 0.535455035925928 0.315145385292984
1.895 -0.19942874185005 0.614321851297525 0.320374447451952
1.9 -0.192136794921069 0.691374181442707 0.322989738379993
1.905 -0.184480671807793 0.766564563425776 0.323110721352914
1.91 -0.176449466982834 0.839862994100629 0.320861419259835
1.915 -0.168037343004924 0.911250834823427 0.316366325079584
1.92 -0.159242116301328 0.980712654095806 0.309746456280288
1.925 -0.150063337840035 1.04822340076775 0.301115467851681
1.93 -0.140500484776951 1.11373480875083 0.290577566760949
1.935 -0.130552000016206 1.17716864548118 0.278228967755611
1.94 -0.120216318710329 1.2384181828052 0.264162062565812
1.945 -0.109494985970847 1.29736345885132 0.248471775628959
1.95 -0.0983972538650026 1.35389997734992 0.231261814385739
1.955 -0.0869453370695605 1.40796909463924 0.212647192940397
1.96 -0.0751779537552599 1.45958409178706 0.192752240517753
1.965 -0.0631502372454926 1.50884231549206 0.171704094539736
1.97 -0.0509294088822807 1.55590688452355 0.149622566809533
1.975 -0.0385859775240951 1.60096214286193 0.126610907555866
1.98 -0.0261823915860211 1.64414971477398 0.102751035483847
1.985 -0.013763021996464 1.68550327558424 0.0781056905842207
1.99 -0.00134935073232767 1.72490577795804 0.0527272721290052
1.995 0.0110567606197933 1.76208929752473 0.0266699789042884
2 0.0234620519336419 1.79668826403933 1.11305637077613e-13
